 Entering Gaussian System, Link 0=g16
 Initial command:
 /usr/local/gaussian16b01/g16/l1.exe "/scr/Gau-187129.inp" -scrdir="/scr/"
 Entering Link 1 = /usr/local/gaussian16b01/g16/l1.exe PID=    187130.
  
 Copyright (c) 1988-2017, Gaussian, Inc.  All Rights Reserved.
  
 This is part of the Gaussian(R) 16 program.  It is based on
 the Gaussian(R) 09 system (copyright 2009, Gaussian, Inc.),
 the Gaussian(R) 03 system (copyright 2003, Gaussian, Inc.),
 the Gaussian(R) 98 system (copyright 1998, Gaussian, Inc.),
 the Gaussian(R) 94 system (copyright 1995, Gaussian, Inc.),
 the Gaussian 92(TM) system (copyright 1992, Gaussian, Inc.),
 the Gaussian 90(TM) system (copyright 1990, Gaussian, Inc.),
 the Gaussian 88(TM) system (copyright 1988, Gaussian, Inc.),
 the Gaussian 86(TM) system (copyright 1986, Carnegie Mellon
 University), and the Gaussian 82(TM) system (copyright 1983,
 Carnegie Mellon University). Gaussian is a federally registered
 trademark of Gaussian, Inc.
  
 This software contains proprietary and confidential information,
 including trade secrets, belonging to Gaussian, Inc.
  
 This software is provided under written license and may be
 used, copied, transmitted, or stored only in accord with that
 written license.
  
 The following legend is applicable only to US Government
 contracts under FAR:
  
                    RESTRICTED RIGHTS LEGEND
  
 Use, reproduction and disclosure by the US Government is
 subject to restrictions as set forth in subparagraphs (a)
 and (c) of the Commercial Computer Software - Restricted
 Rights clause in FAR 52.227-19.
  
 Gaussian, Inc.
 340 Quinnipiac St., Bldg. 40, Wallingford CT 06492
  
  
 ---------------------------------------------------------------
 Warning -- This program may not be used in any manner that
 competes with the business of Gaussian, Inc. or will provide
 assistance to any competitor of Gaussian, Inc.  The licensee
 of this program is prohibited from giving any competitor of
 Gaussian, Inc. access to this program.  By using this program,
 the user acknowledges that Gaussian, Inc. is engaged in the
 business of creating and licensing software in the field of
 computational chemistry and represents and warrants to the
 licensee that it is not a competitor of Gaussian, Inc. and that
 it will not use this program in any manner prohibited above.
 ---------------------------------------------------------------
  

 Cite this work as:
 Gaussian 16, Revision B.01,
 M. J. Frisch, G. W. Trucks, H. B. Schlegel, G. E. Scuseria, 
 M. A. Robb, J. R. Cheeseman, G. Scalmani, V. Barone, 
 G. A. Petersson, H. Nakatsuji, X. Li, M. Caricato, A. V. Marenich, 
 J. Bloino, B. G. Janesko, R. Gomperts, B. Mennucci, H. P. Hratchian, 
 J. V. Ortiz, A. F. Izmaylov, J. L. Sonnenberg, D. Williams-Young, 
 F. Ding, F. Lipparini, F. Egidi, J. Goings, B. Peng, A. Petrone, 
 T. Henderson, D. Ranasinghe, V. G. Zakrzewski, J. Gao, N. Rega, 
 G. Zheng, W. Liang, M. Hada, M. Ehara, K. Toyota, R. Fukuda, 
 J. Hasegawa, M. Ishida, T. Nakajima, Y. Honda, O. Kitao, H. Nakai, 
 T. Vreven, K. Throssell, J. A. Montgomery, Jr., J. E. Peralta, 
 F. Ogliaro, M. J. Bearpark, J. J. Heyd, E. N. Brothers, K. N. Kudin, 
 V. N. Staroverov, T. A. Keith, R. Kobayashi, J. Normand, 
 K. Raghavachari, A. P. Rendell, J. C. Burant, S. S. Iyengar, 
 J. Tomasi, M. Cossi, J. M. Millam, M. Klene, C. Adamo, R. Cammi, 
 J. W. Ochterski, R. L. Martin, K. Morokuma, O. Farkas, 
 J. B. Foresman, and D. J. Fox, Gaussian, Inc., Wallingford CT, 2016.
 
 ******************************************
 Gaussian 16:  ES64L-G16RevB.01 20-Dec-2017
                 3-Sep-2021 
 ******************************************
 %nprocshared=8
 Will use up to    8 processors via shared memory.
 %mem=10GB
 %chk=ben_b3_6311g+2dp_nmr.chk
 --------------------------------------------------------------
 #p nmr=giao rb3lyp/6-311+g(2d,p) scrf=(smd,solvent=chloroform)
 --------------------------------------------------------------
 1/38=1,172=1/1;
 2/12=2,17=6,18=5,40=1/2;
 3/5=4,6=6,7=112,11=2,25=1,30=1,70=32201,72=7,74=-5,116=1/1,2,3,8;
 4//1;
 5/5=2,38=5,53=7/2;
 8/6=1,10=90,11=11/1;
 10/13=100,45=16/2;
 6/7=2,8=2,9=2,10=2,28=1/1;
 99/9=1/99;
 Leave Link    1 at Fri Sep  3 09:49:42 2021, MaxMem=  1342177280 cpu:               0.2 elap:               0.0
 (Enter /usr/local/gaussian16b01/g16/l101.exe)
 -------------------
 Title Card Required
 -------------------
 Symbolic Z-matrix:
 Charge =  0 Multiplicity = 1
 C                    -0.01991  -1.39175   0. 
 C                     1.19537  -0.71306  -0.00001 
 C                     1.21526   0.67863   0.00001 
 C                     0.01985   1.39175  0. 
 C                    -1.19534   0.71312  -0.00001 
 C                    -1.21523  -0.67868   0.00001 
 H                    -0.03532  -2.47537  -0.00001 
 H                     2.12604  -1.26834  -0.00001 
 H                     2.1614    1.20711  0. 
 H                     0.0354    2.47537   0. 
 H                    -2.12608   1.26827  -0.00001 
 H                    -2.16144  -1.20704   0.00002 
 
 ITRead=  0  0  0  0  0  0  0  0  0  0  0  0
 MicOpt= -1 -1 -1 -1 -1 -1 -1 -1 -1 -1 -1 -1
 NAtoms=     12 NQM=       12 NQMF=       0 NMMI=      0 NMMIF=      0
                NMic=       0 NMicF=      0.
                    Isotopes and Nuclear Properties:
 (Nuclear quadrupole moments (NQMom) in fm**2, nuclear magnetic moments (NMagM)
  in nuclear magnetons)

  Atom         1           2           3           4           5           6           7           8           9          10
 IAtWgt=          12          12          12          12          12          12           1           1           1           1
 AtmWgt=  12.0000000  12.0000000  12.0000000  12.0000000  12.0000000  12.0000000   1.0078250   1.0078250   1.0078250   1.0078250
 NucSpn=           0           0           0           0           0           0           1           1           1           1
 AtZEff=  -0.0000000  -0.0000000  -0.0000000  -0.0000000  -0.0000000  -0.0000000  -0.0000000  -0.0000000  -0.0000000  -0.0000000
 NQMom=    0.0000000   0.0000000   0.0000000   0.0000000   0.0000000   0.0000000   0.0000000   0.0000000   0.0000000   0.0000000
 NMagM=    0.0000000   0.0000000   0.0000000   0.0000000   0.0000000   0.0000000   2.7928460   2.7928460   2.7928460   2.7928460
 AtZNuc=   6.0000000   6.0000000   6.0000000   6.0000000   6.0000000   6.0000000   1.0000000   1.0000000   1.0000000   1.0000000

  Atom        11          12
 IAtWgt=           1           1
 AtmWgt=   1.0078250   1.0078250
 NucSpn=           1           1
 AtZEff=  -0.0000000  -0.0000000
 NQMom=    0.0000000   0.0000000
 NMagM=    2.7928460   2.7928460
 AtZNuc=   1.0000000   1.0000000
 Leave Link  101 at Fri Sep  3 09:49:42 2021, MaxMem=  1342177280 cpu:               0.3 elap:               0.1
 (Enter /usr/local/gaussian16b01/g16/l202.exe)
                          Input orientation:                          
 ---------------------------------------------------------------------
 Center     Atomic      Atomic             Coordinates (Angstroms)
 Number     Number       Type             X           Y           Z
 ---------------------------------------------------------------------
      1          6           0       -0.019907   -1.391747    0.000001
      2          6           0        1.195369   -0.713064   -0.000007
      3          6           0        1.215257    0.678627    0.000011
      4          6           0        0.019845    1.391748   -0.000001
      5          6           0       -1.195338    0.713116   -0.000008
      6          6           0       -1.215227   -0.678680    0.000006
      7          1           0       -0.035317   -2.475373   -0.000006
      8          1           0        2.126045   -1.268338   -0.000009
      9          1           0        2.161402    1.207108   -0.000002
     10          1           0        0.035397    2.475372    0.000002
     11          1           0       -2.126084    1.268273   -0.000010
     12          1           0       -2.161440   -1.207040    0.000016
 ---------------------------------------------------------------------
                    Distance matrix (angstroms):
                    1          2          3          4          5
     1  C    0.000000
     2  C    1.391943   0.000000
     3  C    2.410825   1.391833   0.000000
     4  C    2.783779   2.410828   1.391960   0.000000
     5  C    2.410827   2.783787   2.410842   1.391837   0.000000
     6  C    1.391853   2.410841   2.783799   2.410825   1.391938
     7  H    1.083736   2.149493   3.392882   3.867514   3.392950
     8  H    2.149498   1.083738   2.149467   3.392954   3.867524
     9  H    3.392957   2.149484   1.083735   2.149502   3.392894
    10  H    3.867514   3.392884   2.149503   1.083736   2.149478
    11  H    3.392888   3.867525   3.392970   2.149478   1.083738
    12  H    2.149484   3.392960   3.867534   3.392890   2.149500
                    6          7          8          9         10
     6  C    0.000000
     7  H    2.149487   0.000000
     8  H    3.392904   2.475564   0.000000
     9  H    3.867534   4.287918   2.475698   0.000000
    10  H    3.392949   4.951250   4.287910   2.475559   0.000000
    11  H    2.149485   4.287912   4.951262   4.287922   2.475700
    12  H    1.083736   2.475695   4.287923   4.951270   4.287919
                   11         12
    11  H    0.000000
    12  H    2.475565   0.000000
 Stoichiometry    C6H6
 Framework group  C1[X(C6H6)]
 Deg. of freedom    30
 Full point group                 C1      NOp   1
 Largest Abelian subgroup         C1      NOp   1
 Largest concise Abelian subgroup C1      NOp   1
                         Standard orientation:                         
 ---------------------------------------------------------------------
 Center     Atomic      Atomic             Coordinates (Angstroms)
 Number     Number       Type             X           Y           Z
 ---------------------------------------------------------------------
      1          6           0        0.006920    1.391872   -0.000001
      2          6           0        1.208890    0.689893    0.000007
      3          6           0        1.201952   -0.701923   -0.000011
      4          6           0       -0.006982   -1.391872    0.000001
      5          6           0       -1.208860   -0.689945    0.000008
      6          6           0       -1.201921    0.701975   -0.000006
      7          1           0        0.012398    2.475594    0.000006
      8          1           0        2.150095    1.227127    0.000009
      9          1           0        2.137736   -1.248541    0.000002
     10          1           0       -0.012318   -2.475594   -0.000002
     11          1           0       -2.150133   -1.227061    0.000010
     12          1           0       -2.137775    1.248474   -0.000016
 ---------------------------------------------------------------------
 Rotational constants (GHZ):           5.7250682           5.7249854           2.8625134
 Leave Link  202 at Fri Sep  3 09:49:42 2021, MaxMem=  1342177280 cpu:               0.1 elap:               0.0
 (Enter /usr/local/gaussian16b01/g16/l301.exe)
 Standard basis: 6-311+G(2d,p) (5D, 7F)
 Ernie: Thresh=  0.10000D-02 Tol=  0.10000D-05 Strict=F.
 There are   210 symmetry adapted cartesian basis functions of A   symmetry.
 There are   198 symmetry adapted basis functions of A   symmetry.
   198 basis functions,   300 primitive gaussians,   210 cartesian basis functions
    21 alpha electrons       21 beta electrons
       nuclear repulsion energy       203.8646868635 Hartrees.
 IExCor=  402 DFT=T Ex+Corr=B3LYP ExCW=0 ScaHFX=  0.200000
 ScaDFX=  0.800000  0.720000  1.000000  0.810000 ScalE2=  1.000000  1.000000
 IRadAn=      5 IRanWt=     -1 IRanGd=            0 ICorTp=0 IEmpDi=  4
 NAtoms=   12 NActive=   12 NUniq=   12 SFac= 1.00D+00 NAtFMM=   60 NAOKFM=F Big=F
 Integral buffers will be    131072 words long.
 Raffenetti 2 integral format.
 Two-electron integral symmetry is turned on.
 ------------------------------------------------------------------------------
 Polarizable Continuum Model (PCM)
 =================================
 Model                : PCM.
 Atomic radii         : SMD-Coulomb.
 Polarization charges : Total charges.
 Charge compensation  : None.
 Solution method      : On-the-fly selection.
 Cavity type          : VdW (van der Waals Surface) (Alpha=1.000).
 Cavity algorithm     : GePol (No added spheres)
                        Default sphere list used, NSphG=   12.
                        Lebedev-Laikov grids with approx.  5.0 points / Ang**2.
                        Smoothing algorithm: York/Karplus (Gamma=1.0000).
                        Polarization charges: spherical gaussians, with
                                              point-specific exponents (IZeta= 3).
                        Self-potential: point-specific (ISelfS= 7).
                        Self-field    : sphere-specific E.n sum rule (ISelfD= 2).
 Solvent              : Chloroform, Eps=   4.711300 Eps(inf)=   2.090627
 ------------------------------------------------------------------------------
 Spheres list:
 ISph  on   Nord     Re0    Alpha      Xe            Ye            Ze
    1   C      1    1.8500  1.000      0.006920      1.391872     -0.000001
    2   C      2    1.8500  1.000      1.208890      0.689893      0.000007
    3   C      3    1.8500  1.000      1.201952     -0.701923     -0.000011
    4   C      4    1.8500  1.000     -0.006982     -1.391872      0.000001
    5   C      5    1.8500  1.000     -1.208860     -0.689945      0.000008
    6   C      6    1.8500  1.000     -1.201921      0.701975     -0.000006
    7   H      7    1.2000  1.000      0.012398      2.475594      0.000006
    8   H      8    1.2000  1.000      2.150095      1.227127      0.000009
    9   H      9    1.2000  1.000      2.137736     -1.248541      0.000002
   10   H     10    1.2000  1.000     -0.012318     -2.475594     -0.000002
   11   H     11    1.2000  1.000     -2.150133     -1.227061      0.000010
   12   H     12    1.2000  1.000     -2.137775      1.248474     -0.000016
 ------------------------------------------------------------------------------
 GePol: Number of generator spheres                  =      12
 GePol: Total number of spheres                      =      12
 GePol: Number of exposed spheres                    =      12 (100.00%)
 GePol: Number of points                             =    1004
 GePol: Average weight of points                     =       0.11
 GePol: Minimum weight of points                     =   0.27D-06
 GePol: Maximum weight of points                     =    0.17992
 GePol: Number of points with low weight             =      38
 GePol: Fraction of low-weight points (<1% of avg)   =       3.78%
 GePol: Cavity surface area                          =    111.887 Ang**2
 GePol: Cavity volume                                =     92.836 Ang**3
 ------------------------------------------------------------------------------
 Atomic radii for non-electrostatic terms: SMD-CDS.
 ------------------------------------------------------------------------------
 PCM non-electrostatic energy =        -0.0050848521 Hartrees.
 Nuclear repulsion after PCM non-electrostatic terms =      203.8596020114 Hartrees.
 Leave Link  301 at Fri Sep  3 09:49:42 2021, MaxMem=  1342177280 cpu:               0.4 elap:               0.1
 (Enter /usr/local/gaussian16b01/g16/l302.exe)
 NPDir=0 NMtPBC=     1 NCelOv=     1 NCel=       1 NClECP=     1 NCelD=      1
         NCelK=      1 NCelE2=     1 NClLst=     1 CellRange=     0.0.
 One-electron integrals computed using PRISM.
 One-electron integral symmetry used in STVInt
 NBasis=   198 RedAO= T EigKep=  3.94D-06  NBF=   198
 NBsUse=   198 1.00D-06 EigRej= -1.00D+00 NBFU=   198
 Precomputing XC quadrature grid using
 IXCGrd= 4 IRadAn=           5 IRanWt=          -1 IRanGd=           0 AccXCQ= 0.00D+00.
 Generated NRdTot=       0 NPtTot=           0 NUsed=           0 NTot=          32
 NSgBfM=   210   210   210   210   210 MxSgAt=    12 MxSgA2=    12.
 Leave Link  302 at Fri Sep  3 09:49:42 2021, MaxMem=  1342177280 cpu:               1.0 elap:               0.1
 (Enter /usr/local/gaussian16b01/g16/l303.exe)
 DipDrv:  MaxL=1.
 Leave Link  303 at Fri Sep  3 09:49:42 2021, MaxMem=  1342177280 cpu:               0.1 elap:               0.0
 (Enter /usr/local/gaussian16b01/g16/l308.exe)
 Leave Link  308 at Fri Sep  3 09:49:42 2021, MaxMem=  1342177280 cpu:               0.1 elap:               0.0
 (Enter /usr/local/gaussian16b01/g16/l401.exe)
 ExpMin= 4.38D-02 ExpMax= 4.56D+03 ExpMxC= 6.82D+02 IAcc=3 IRadAn=         5 AccDes= 0.00D+00
 Harris functional with IExCor=  402 and IRadAn=       5 diagonalized for initial guess.
 HarFok:  IExCor=  402 AccDes= 0.00D+00 IRadAn=         5 IDoV= 1 UseB2=F ITyADJ=14
 ICtDFT=  3500011 ScaDFX=  1.000000  1.000000  1.000000  1.000000
 FoFCou: FMM=F IPFlag=           0 FMFlag=      100000 FMFlg1=           0
         NFxFlg=           0 DoJE=T BraDBF=F KetDBF=T FulRan=T
         wScrn=  0.000000 ICntrl=       500 IOpCl=  0 I1Cent=   200000004 NGrid=           0
         NMat0=    1 NMatS0=      1 NMatT0=    0 NMatD0=    1 NMtDS0=    0 NMtDT0=    0
 Petite list used in FoFCou.
 Harris En= -232.364044728372    
 JPrj=0 DoOrth=F DoCkMO=F.
 Leave Link  401 at Fri Sep  3 09:49:42 2021, MaxMem=  1342177280 cpu:               4.4 elap:               0.6
 (Enter /usr/local/gaussian16b01/g16/l502.exe)
 Keep R1 ints in memory in canonical form, NReq=202384719.
 FoFCou: FMM=F IPFlag=           0 FMFlag=           0 FMFlg1=           0
         NFxFlg=           0 DoJE=F BraDBF=F KetDBF=F FulRan=T
         wScrn=  0.000000 ICntrl=       600 IOpCl=  0 I1Cent=           0 NGrid=           0
         NMat0=    1 NMatS0=  19701 NMatT0=    0 NMatD0=    1 NMtDS0=    0 NMtDT0=    0
 Symmetry not used in FoFCou.
 Two-electron integral symmetry not used.
 Closed shell SCF:
 Using DIIS extrapolation, IDIIS=  1040.
 NGot=  1342177280 LenX=  1148010811 LenY=  1147966270
 Requested convergence on RMS density matrix=1.00D-08 within 128 cycles.
 Requested convergence on MAX density matrix=1.00D-06.
 Requested convergence on             energy=1.00D-06.
 No special actions if energy rises.

 Cycle   1  Pass 1  IDiag  1:
 Inv3:  Mode=1 IEnd=     3024048.
 Iteration    1 A*A^-1 deviation from unit magnitude is 4.00D-15 for   1001.
 Iteration    1 A*A^-1 deviation from orthogonality  is 1.96D-15 for    987    285.
 Iteration    1 A^-1*A deviation from unit magnitude is 3.77D-15 for    984.
 Iteration    1 A^-1*A deviation from orthogonality  is 8.99D-16 for    549    314.
 E= -232.159658685436    
 DIIS: error= 4.84D-02 at cycle   1 NSaved=   1.
 NSaved= 1 IEnMin= 1 EnMin= -232.159658685436     IErMin= 1 ErrMin= 4.84D-02
 ErrMax= 4.84D-02  0.00D+00 EMaxC= 1.00D-01 BMatC= 1.63D-01 BMatP= 1.63D-01
 IDIUse=3 WtCom= 5.16D-01 WtEn= 4.84D-01
 Coeff-Com:  0.100D+01
 Coeff-En:   0.100D+01
 Coeff:      0.100D+01
 Gap=     0.246 Goal=   None    Shift=    0.000
 GapD=    0.246 DampG=1.000 DampE=0.500 DampFc=0.5000 IDamp=-1.
 Damping current iteration by 5.00D-01
 RMSDP=3.77D-03 MaxDP=8.71D-02              OVMax= 1.89D-01

 Cycle   2  Pass 1  IDiag  1:
 E= -232.234302282466     Delta-E=       -0.074643597030 Rises=F Damp=T
 DIIS: error= 8.16D-03 at cycle   2 NSaved=   2.
 NSaved= 2 IEnMin= 2 EnMin= -232.234302282466     IErMin= 2 ErrMin= 8.16D-03
 ErrMax= 8.16D-03  0.00D+00 EMaxC= 1.00D-01 BMatC= 8.32D-03 BMatP= 1.63D-01
 IDIUse=3 WtCom= 9.18D-01 WtEn= 8.16D-02
 Coeff-Com:  0.415D-02 0.996D+00
 Coeff-En:   0.721D-01 0.928D+00
 Coeff:      0.969D-02 0.990D+00
 Gap=     0.273 Goal=   None    Shift=    0.000
 RMSDP=8.58D-04 MaxDP=9.12D-03 DE=-7.46D-02 OVMax= 1.08D-01

 Cycle   3  Pass 1  IDiag  1:
 E= -232.323630484439     Delta-E=       -0.089328201973 Rises=F Damp=F
 DIIS: error= 7.53D-03 at cycle   3 NSaved=   3.
 NSaved= 3 IEnMin= 3 EnMin= -232.323630484439     IErMin= 3 ErrMin= 7.53D-03
 ErrMax= 7.53D-03  0.00D+00 EMaxC= 1.00D-01 BMatC= 2.79D-03 BMatP= 8.32D-03
 IDIUse=3 WtCom= 9.25D-01 WtEn= 7.53D-02
 Coeff-Com: -0.630D-01 0.338D+00 0.725D+00
 Coeff-En:   0.000D+00 0.000D+00 0.100D+01
 Coeff:     -0.583D-01 0.313D+00 0.745D+00
 Gap=     0.243 Goal=   None    Shift=    0.000
 RMSDP=3.75D-04 MaxDP=1.07D-02 DE=-8.93D-02 OVMax= 1.18D-02

 Cycle   4  Pass 1  IDiag  1:
 E= -232.326354576319     Delta-E=       -0.002724091880 Rises=F Damp=F
 DIIS: error= 7.17D-04 at cycle   4 NSaved=   4.
 NSaved= 4 IEnMin= 4 EnMin= -232.326354576319     IErMin= 4 ErrMin= 7.17D-04
 ErrMax= 7.17D-04  0.00D+00 EMaxC= 1.00D-01 BMatC= 5.76D-05 BMatP= 2.79D-03
 IDIUse=3 WtCom= 9.93D-01 WtEn= 7.17D-03
 Coeff-Com: -0.159D-01 0.337D-01 0.177D+00 0.805D+00
 Coeff-En:   0.000D+00 0.000D+00 0.000D+00 0.100D+01
 Coeff:     -0.158D-01 0.334D-01 0.176D+00 0.807D+00
 Gap=     0.243 Goal=   None    Shift=    0.000
 RMSDP=4.84D-05 MaxDP=8.32D-04 DE=-2.72D-03 OVMax= 1.31D-03

 Cycle   5  Pass 1  IDiag  1:
 E= -232.326405199985     Delta-E=       -0.000050623666 Rises=F Damp=F
 DIIS: error= 2.23D-05 at cycle   5 NSaved=   5.
 NSaved= 5 IEnMin= 5 EnMin= -232.326405199985     IErMin= 5 ErrMin= 2.23D-05
 ErrMax= 2.23D-05  0.00D+00 EMaxC= 1.00D-01 BMatC= 6.87D-08 BMatP= 5.76D-05
 IDIUse=1 WtCom= 1.00D+00 WtEn= 0.00D+00
 Coeff-Com: -0.675D-04-0.117D-02 0.159D-02 0.365D-01 0.963D+00
 Coeff:     -0.675D-04-0.117D-02 0.159D-02 0.365D-01 0.963D+00
 Gap=     0.243 Goal=   None    Shift=    0.000
 RMSDP=3.20D-06 MaxDP=5.18D-05 DE=-5.06D-05 OVMax= 6.02D-05

 Cycle   6  Pass 1  IDiag  1:
 E= -232.326405254078     Delta-E=       -0.000000054093 Rises=F Damp=F
 DIIS: error= 6.95D-06 at cycle   6 NSaved=   6.
 NSaved= 6 IEnMin= 6 EnMin= -232.326405254078     IErMin= 6 ErrMin= 6.95D-06
 ErrMax= 6.95D-06  0.00D+00 EMaxC= 1.00D-01 BMatC= 4.54D-09 BMatP= 6.87D-08
 IDIUse=1 WtCom= 1.00D+00 WtEn= 0.00D+00
 Coeff-Com:  0.637D-04-0.380D-03-0.623D-03 0.427D-02 0.181D+00 0.816D+00
 Coeff:      0.637D-04-0.380D-03-0.623D-03 0.427D-02 0.181D+00 0.816D+00
 Gap=     0.243 Goal=   None    Shift=    0.000
 RMSDP=9.68D-07 MaxDP=2.81D-05 DE=-5.41D-08 OVMax= 3.96D-05

 Cycle   7  Pass 1  IDiag  1:
 E= -232.326405254691     Delta-E=       -0.000000000612 Rises=F Damp=F
 DIIS: error= 6.78D-06 at cycle   7 NSaved=   7.
 NSaved= 7 IEnMin= 7 EnMin= -232.326405254691     IErMin= 7 ErrMin= 6.78D-06
 ErrMax= 6.78D-06  0.00D+00 EMaxC= 1.00D-01 BMatC= 3.95D-09 BMatP= 4.54D-09
 IDIUse=1 WtCom= 1.00D+00 WtEn= 0.00D+00
 Coeff-Com:  0.375D-04-0.852D-04-0.487D-03-0.933D-03 0.257D-02 0.490D+00
 Coeff-Com:  0.509D+00
 Coeff:      0.375D-04-0.852D-04-0.487D-03-0.933D-03 0.257D-02 0.490D+00
 Coeff:      0.509D+00
 Gap=     0.243 Goal=   None    Shift=    0.000
 RMSDP=2.74D-07 MaxDP=8.08D-06 DE=-6.12D-10 OVMax= 1.98D-05

 Cycle   8  Pass 1  IDiag  1:
 E= -232.326405258378     Delta-E=       -0.000000003687 Rises=F Damp=F
 DIIS: error= 1.34D-07 at cycle   8 NSaved=   8.
 NSaved= 8 IEnMin= 8 EnMin= -232.326405258378     IErMin= 8 ErrMin= 1.34D-07
 ErrMax= 1.34D-07  0.00D+00 EMaxC= 1.00D-01 BMatC= 1.90D-12 BMatP= 3.95D-09
 IDIUse=1 WtCom= 1.00D+00 WtEn= 0.00D+00
 Coeff-Com:  0.377D-06-0.254D-05-0.329D-04-0.933D-04-0.124D-02 0.129D-01
 Coeff-Com:  0.258D-01 0.963D+00
 Coeff:      0.377D-06-0.254D-05-0.329D-04-0.933D-04-0.124D-02 0.129D-01
 Coeff:      0.258D-01 0.963D+00
 Gap=     0.243 Goal=   None    Shift=    0.000
 RMSDP=1.46D-08 MaxDP=3.44D-07 DE=-3.69D-09 OVMax= 4.24D-07

 Cycle   9  Pass 1  IDiag  1:
 E= -232.326405258377     Delta-E=        0.000000000001 Rises=F Damp=F
 DIIS: error= 3.40D-08 at cycle   9 NSaved=   9.
 NSaved= 9 IEnMin= 8 EnMin= -232.326405258378     IErMin= 9 ErrMin= 3.40D-08
 ErrMax= 3.40D-08  0.00D+00 EMaxC= 1.00D-01 BMatC= 8.76D-14 BMatP= 1.90D-12
 IDIUse=1 WtCom= 1.00D+00 WtEn= 0.00D+00
 Coeff-Com:  0.420D-07-0.474D-06-0.825D-05-0.290D-04-0.424D-03 0.191D-02
 Coeff-Com:  0.600D-02 0.310D+00 0.682D+00
 Coeff:      0.420D-07-0.474D-06-0.825D-05-0.290D-04-0.424D-03 0.191D-02
 Coeff:      0.600D-02 0.310D+00 0.682D+00
 Gap=     0.243 Goal=   None    Shift=    0.000
 RMSDP=3.90D-09 MaxDP=1.04D-07 DE= 1.08D-12 OVMax= 2.36D-07

 Error on total polarization charges =  0.03700
 SCF Done:  E(RB3LYP) =  -232.326405258     A.U. after    9 cycles
            NFock=  9  Conv=0.39D-08     -V/T= 2.0044
 KE= 2.312975038251D+02 PE=-9.464735187190D+02 EE= 2.789900076241D+02
 SMD-CDS (non-electrostatic) energy       (kcal/mol) =      -3.19
 (included in total energy above)
 Leave Link  502 at Fri Sep  3 09:49:52 2021, MaxMem=  1342177280 cpu:              68.0 elap:               9.6
 (Enter /usr/local/gaussian16b01/g16/l801.exe)
 DoSCS=F DFT=T ScalE2(SS,OS)=  1.000000  1.000000
 Range of M.O.s used for correlation:     1   198
 NBasis=   198 NAE=    21 NBE=    21 NFC=     0 NFV=     0
 NROrb=    198 NOA=    21 NOB=    21 NVA=   177 NVB=   177

 **** Warning!!: The largest alpha MO coefficient is  0.14227057D+03

 Leave Link  801 at Fri Sep  3 09:49:52 2021, MaxMem=  1342177280 cpu:               0.1 elap:               0.0
 (Enter /usr/local/gaussian16b01/g16/l1002.exe)
 Minotr:  Closed shell wavefunction.
 NEqPCM:  Using equilibrium solvation (IEInf=0, Eps=   4.7113, EpsInf=   2.0906)
          Direct CPHF calculation.
          Differentiating once with respect to magnetic field using GIAOs.
          Electric field/nuclear overlap derivatives assumed to be zero.
          Requested convergence is 1.0D-08 RMS, and 1.0D-07 maximum.
          Secondary convergence is 1.0D-12 RMS, and 1.0D-12 maximum.
          NewPWx=T KeepS1=F KeepF1=F KeepIn=T MapXYZ=F SortEE=F KeepMc=T.
         3661 words used for storage of precomputed grid.
 Keep R3 ints in memory in canonical form, NReq=204405143.
 FoFCou: FMM=F IPFlag=           0 FMFlag=           0 FMFlg1=           0
         NFxFlg=           0 DoJE=F BraDBF=F KetDBF=F FulRan=T
         wScrn=  0.000000 ICntrl=       600 IOpCl=  0 I1Cent=           0 NGrid=           0
         NMat0=    1 NMatS0=  19701 NMatT0=    0 NMatD0=    1 NMtDS0=    0 NMtDT0=    0
 Symmetry not used in FoFCou.
 Two-electron integral symmetry not used.
          MDV=    1342177280 using IRadAn=       1.
          Solving linear equations simultaneously, MaxMat=       0.
 FoFJK:  IHMeth= 1 ICntrl=    6127 DoSepK=F KAlg= 0 I1Cent=           0 FoldK=F
 IRaf=         1 NMat=       1 IRICut=       1 DoRegI=T DoRafI=F ISym2E= 0 IDoP0=0 IntGTp=1.
          There are     3 degrees of freedom in the 1st order CPHF.  IDoFFX=0 NUNeed=     3.
      3 vectors produced by pass  0 Test12= 1.24D-13 3.33D-08 XBig12= 5.14D+00 8.62D-01.
 AX will form     3 AO Fock derivatives at one time.
      3 vectors produced by pass  1 Test12= 1.24D-13 3.33D-08 XBig12= 5.98D-03 4.04D-02.
      3 vectors produced by pass  2 Test12= 1.24D-13 3.33D-08 XBig12= 4.06D-06 6.24D-04.
      3 vectors produced by pass  3 Test12= 1.24D-13 3.33D-08 XBig12= 5.04D-09 3.15D-05.
      3 vectors produced by pass  4 Test12= 1.24D-13 3.33D-08 XBig12= 1.05D-11 1.32D-06.
      2 vectors produced by pass  5 Test12= 1.24D-13 3.33D-08 XBig12= 1.49D-14 4.03D-08.
 InvSVY:  IOpt=1 It=  1 EMax= 2.22D-16
 Solved reduced A of dimension    17 with     3 vectors.
 Calculating GIAO nuclear magnetic shielding tensors.
 SCF GIAO Magnetic shielding tensor (ppm):
      1  C    Isotropic =    49.7135   Anisotropy =   188.6061
   XX=    37.8587   YX=    -0.4986   ZX=    -0.0009
   XY=    -0.5054   YY=   -64.1691   ZY=    -0.0007
   XZ=     0.0001   YZ=     0.0002   ZZ=   175.4509
   Eigenvalues:   -64.1715    37.8611   175.4509
      2  C    Isotropic =    49.6118   Anisotropy =   188.7551
   XX=   -39.3664   YX=   -44.0553   ZX=    -0.0011
   XY=   -43.9238   YY=    12.7532   ZY=    -0.0013
   XZ=    -0.0025   YZ=    -0.0011   ZZ=   175.4485
   Eigenvalues:   -64.4358    37.8226   175.4485
      3  C    Isotropic =    49.6089   Anisotropy =   188.7616
   XX=   -38.4869   YX=    44.5701   ZX=    -0.0001
   XY=    44.4411   YY=    11.8637   ZY=    -0.0004
   XZ=     0.0005   YZ=    -0.0002   ZZ=   175.4500
   Eigenvalues:   -64.4442    37.8210   175.4500
      4  C    Isotropic =    49.7133   Anisotropy =   188.6062
   XX=    37.8585   YX=    -0.5128   ZX=     0.0010
   XY=    -0.5104   YY=   -64.1693   ZY=    -0.0001
   XZ=    -0.0005   YZ=     0.0014   ZZ=   175.4508
   Eigenvalues:   -64.1719    37.8611   175.4508
      5  C    Isotropic =    49.6121   Anisotropy =   188.7549
   XX=   -39.3571   YX=   -44.0556   ZX=     0.0011
   XY=   -43.9333   YY=    12.7448   ZY=     0.0012
   XZ=     0.0002   YZ=     0.0001   ZZ=   175.4487
   Eigenvalues:   -64.4351    37.8227   175.4487
      6  C    Isotropic =    49.6095   Anisotropy =   188.7614
   XX=   -38.4775   YX=    44.5700   ZX=    -0.0016
   XY=    44.4502   YY=    11.8554   ZY=     0.0015
   XZ=    -0.0004   YZ=    -0.0000   ZZ=   175.4504
   Eigenvalues:   -64.4432    37.8212   175.4504
      7  H    Isotropic =    24.1077   Anisotropy =     5.3106
   XX=    27.6480   YX=    -0.0205   ZX=    -0.0000
   XY=    -0.0207   YY=    23.5365   ZY=    -0.0000
   XZ=    -0.0000   YZ=     0.0001   ZZ=    21.1385
   Eigenvalues:    21.1385    23.5364    27.6481
      8  H    Isotropic =    24.0931   Anisotropy =     5.3160
   XX=    24.5153   YX=    -1.7783   ZX=     0.0000
   XY=    -1.7737   YY=    26.6268   ZY=     0.0000
   XZ=    -0.0000   YZ=     0.0000   ZZ=    21.1373
   Eigenvalues:    21.1373    23.5050    27.6371
      9  H    Isotropic =    24.0925   Anisotropy =     5.3165
   XX=    24.5504   YX=     1.7995   ZX=    -0.0001
   XY=     1.7951   YY=    26.5903   ZY=     0.0000
   XZ=     0.0000   YZ=    -0.0000   ZZ=    21.1370
   Eigenvalues:    21.1370    23.5038    27.6368
     10  H    Isotropic =    24.1077   Anisotropy =     5.3107
   XX=    27.6480   YX=    -0.0198   ZX=     0.0000
   XY=    -0.0201   YY=    23.5365   ZY=    -0.0000
   XZ=    -0.0000   YZ=     0.0000   ZZ=    21.1385
   Eigenvalues:    21.1385    23.5364    27.6481
     11  H    Isotropic =    24.0931   Anisotropy =     5.3160
   XX=    24.5149   YX=    -1.7780   ZX=    -0.0000
   XY=    -1.7733   YY=    26.6273   ZY=    -0.0000
   XZ=    -0.0001   YZ=    -0.0000   ZZ=    21.1373
   Eigenvalues:    21.1373    23.5050    27.6371
     12  H    Isotropic =    24.0925   Anisotropy =     5.3164
   XX=    24.5499   YX=     1.7992   ZX=    -0.0000
   XY=     1.7947   YY=    26.5908   ZY=     0.0000
   XZ=     0.0001   YZ=    -0.0001   ZZ=    21.1369
   Eigenvalues:    21.1369    23.5039    27.6368
 End of Minotr F.D. properties file   721 does not exist.
 End of Minotr F.D. properties file   722 does not exist.
 End of Minotr F.D. properties file   788 does not exist.
 Leave Link 1002 at Fri Sep  3 09:49:58 2021, MaxMem=  1342177280 cpu:              49.6 elap:               6.4
 (Enter /usr/local/gaussian16b01/g16/l601.exe)
 Copying SCF densities to generalized density rwf, IOpCl= 0 IROHF=0.

 **********************************************************************

            Population analysis using the SCF Density.

 **********************************************************************

 Orbital symmetries:
       Occupied  (A) (A) (A) (A) (A) (A) (A) (A) (A) (A) (A) (A)
                 (A) (A) (A) (A) (A) (A) (A) (A) (A)
       Virtual   (A) (A) (A) (A) (A) (A) (A) (A) (A) (A) (A) (A)
                 (A) (A) (A) (A) (A) (A) (A) (A) (A) (A) (A) (A)
                 (A) (A) (A) (A) (A) (A) (A) (A) (A) (A) (A) (A)
                 (A) (A) (A) (A) (A) (A) (A) (A) (A) (A) (A) (A)
                 (A) (A) (A) (A) (A) (A) (A) (A) (A) (A) (A) (A)
                 (A) (A) (A) (A) (A) (A) (A) (A) (A) (A) (A) (A)
                 (A) (A) (A) (A) (A) (A) (A) (A) (A) (A) (A) (A)
                 (A) (A) (A) (A) (A) (A) (A) (A) (A) (A) (A) (A)
                 (A) (A) (A) (A) (A) (A) (A) (A) (A) (A) (A) (A)
                 (A) (A) (A) (A) (A) (A) (A) (A) (A) (A) (A) (A)
                 (A) (A) (A) (A) (A) (A) (A) (A) (A) (A) (A) (A)
                 (A) (A) (A) (A) (A) (A) (A) (A) (A) (A) (A) (A)
                 (A) (A) (A) (A) (A) (A) (A) (A) (A) (A) (A) (A)
                 (A) (A) (A) (A) (A) (A) (A) (A) (A) (A) (A) (A)
                 (A) (A) (A) (A) (A) (A) (A) (A) (A)
 The electronic state is 1-A.
 Alpha  occ. eigenvalues --  -10.17284 -10.17260 -10.17260 -10.17200 -10.17199
 Alpha  occ. eigenvalues --  -10.17173  -0.85772  -0.74816  -0.74816  -0.60385
 Alpha  occ. eigenvalues --   -0.60384  -0.52480  -0.45951  -0.45016  -0.42241
 Alpha  occ. eigenvalues --   -0.42240  -0.37261  -0.34521  -0.34520  -0.25851
 Alpha  occ. eigenvalues --   -0.25849
 Alpha virt. eigenvalues --   -0.01505  -0.01504   0.01025   0.03039   0.03039
 Alpha virt. eigenvalues --    0.05297   0.05298   0.06056   0.07038   0.08594
 Alpha virt. eigenvalues --    0.09052   0.09053   0.10587   0.12848   0.14290
 Alpha virt. eigenvalues --    0.14291   0.14490   0.14493   0.14910   0.14911
 Alpha virt. eigenvalues --    0.17484   0.20285   0.20286   0.20423   0.20921
 Alpha virt. eigenvalues --    0.20921   0.21426   0.21426   0.23237   0.23901
 Alpha virt. eigenvalues --    0.23903   0.27240   0.28257   0.32537   0.32538
 Alpha virt. eigenvalues --    0.32831   0.32833   0.40307   0.45191   0.45609
 Alpha virt. eigenvalues --    0.49704   0.51605   0.51607   0.52781   0.52782
 Alpha virt. eigenvalues --    0.52881   0.53555   0.53558   0.53687   0.55275
 Alpha virt. eigenvalues --    0.60855   0.60855   0.64561   0.64748   0.64750
 Alpha virt. eigenvalues --    0.65584   0.65586   0.66367   0.66839   0.71679
 Alpha virt. eigenvalues --    0.76504   0.76508   0.77689   0.77690   0.81044
 Alpha virt. eigenvalues --    0.81812   0.81814   0.82158   0.82158   0.83708
 Alpha virt. eigenvalues --    0.84328   0.84330   0.85686   1.00196   1.00197
 Alpha virt. eigenvalues --    1.10327   1.12440   1.12441   1.18896   1.21777
 Alpha virt. eigenvalues --    1.23162   1.23162   1.28744   1.31182   1.31183
 Alpha virt. eigenvalues --    1.33304   1.33304   1.34578   1.34578   1.47774
 Alpha virt. eigenvalues --    1.50928   1.50928   1.53461   1.53462   1.56738
 Alpha virt. eigenvalues --    1.57162   1.57163   1.59225   1.62722   1.78554
 Alpha virt. eigenvalues --    1.78556   1.88662   1.93708   1.99855   1.99857
 Alpha virt. eigenvalues --    2.16230   2.22271   2.32750   2.32751   2.34336
 Alpha virt. eigenvalues --    2.34337   2.57266   2.62799   2.66492   2.66493
 Alpha virt. eigenvalues --    2.68240   2.74768   2.74769   2.76083   2.76084
 Alpha virt. eigenvalues --    2.78927   2.84114   2.84115   2.84459   2.84460
 Alpha virt. eigenvalues --    2.99482   2.99816   2.99817   3.05007   3.10059
 Alpha virt. eigenvalues --    3.11413   3.11806   3.15160   3.23229   3.23229
 Alpha virt. eigenvalues --    3.27929   3.29685   3.29687   3.30097   3.30098
 Alpha virt. eigenvalues --    3.37423   3.37424   3.40758   3.43737   3.43738
 Alpha virt. eigenvalues --    3.56183   3.56185   3.57358   3.57360   3.60453
 Alpha virt. eigenvalues --    3.60455   3.65486   3.73235   3.73236   3.74899
 Alpha virt. eigenvalues --    3.78506   3.78507   3.83436   3.88023   3.88350
 Alpha virt. eigenvalues --    3.93428   3.93792   3.93792   4.00440   4.00441
 Alpha virt. eigenvalues --    4.53142   4.53145   4.63551   4.83363   4.83365
 Alpha virt. eigenvalues --    5.29381  23.61338  23.99322  23.99326  24.06555
 Alpha virt. eigenvalues --   24.06558  24.12815
          Condensed to atoms (all electrons):
               1          2          3          4          5          6
     1  C    5.123388   0.290608   0.164723  -0.265544   0.164732   0.290708
     2  C    0.290608   5.123335   0.290545   0.164732  -0.265548   0.164628
     3  C    0.164723   0.290545   5.123405   0.290568   0.164628  -0.265562
     4  C   -0.265544   0.164732   0.290568   5.123387   0.290748   0.164722
     5  C    0.164732  -0.265548   0.164628   0.290748   5.123335   0.290404
     6  C    0.290708   0.164628  -0.265562   0.164722   0.290404   5.123404
     7  H    0.457261  -0.080235   0.027357  -0.009312   0.027360  -0.080239
     8  H   -0.080216   0.457278  -0.080282   0.027370  -0.009317   0.027357
     9  H    0.027371  -0.080275   0.457280  -0.080223   0.027357  -0.009317
    10  H   -0.009312   0.027358  -0.080255   0.457261  -0.080219   0.027359
    11  H    0.027368  -0.009317   0.027358  -0.080201   0.457278  -0.080297
    12  H   -0.080207   0.027358  -0.009317   0.027369  -0.080290   0.457280
               7          8          9         10         11         12
     1  C    0.457261  -0.080216   0.027371  -0.009312   0.027368  -0.080207
     2  C   -0.080235   0.457278  -0.080275   0.027358  -0.009317   0.027358
     3  C    0.027357  -0.080282   0.457280  -0.080255   0.027358  -0.009317
     4  C   -0.009312   0.027370  -0.080223   0.457261  -0.080201   0.027369
     5  C    0.027360  -0.009317   0.027357  -0.080219   0.457278  -0.080290
     6  C   -0.080239   0.027357  -0.009317   0.027359  -0.080297   0.457280
     7  H    0.558561  -0.005353  -0.000348   0.000095  -0.000348  -0.005355
     8  H   -0.005353   0.558506  -0.005356  -0.000348   0.000095  -0.000348
     9  H   -0.000348  -0.005356   0.558493  -0.005353  -0.000348   0.000095
    10  H    0.000095  -0.000348  -0.005353   0.558561  -0.005355  -0.000348
    11  H   -0.000348   0.000095  -0.000348  -0.005355   0.558506  -0.005355
    12  H   -0.005355  -0.000348   0.000095  -0.000348  -0.005355   0.558493
 Mulliken charges:
               1
     1  C   -0.110878
     2  C   -0.110467
     3  C   -0.110448
     4  C   -0.110878
     5  C   -0.110467
     6  C   -0.110447
     7  H    0.110555
     8  H    0.110614
     9  H    0.110624
    10  H    0.110555
    11  H    0.110614
    12  H    0.110623
 Sum of Mulliken charges =  -0.00000
 Mulliken charges with hydrogens summed into heavy atoms:
               1
     1  C   -0.000324
     2  C    0.000147
     3  C    0.000176
     4  C   -0.000323
     5  C    0.000147
     6  C    0.000176
 Electronic spatial extent (au):  <R**2>=            457.1027
 Charge=             -0.0000 electrons
 Dipole moment (field-independent basis, Debye):
    X=              0.0000    Y=             -0.0000    Z=              0.0000  Tot=              0.0000
 Quadrupole moment (field-independent basis, Debye-Ang):
   XX=            -31.3990   YY=            -31.4022   ZZ=            -40.3909
   XY=             -0.0000   XZ=              0.0000   YZ=             -0.0000
 Traceless Quadrupole moment (field-independent basis, Debye-Ang):
   XX=              2.9984   YY=              2.9951   ZZ=             -5.9936
   XY=             -0.0000   XZ=              0.0000   YZ=             -0.0000
 Octapole moment (field-independent basis, Debye-Ang**2):
  XXX=             -0.0018  YYY=             -0.0000  ZZZ=              0.0000  XYY=              0.0018
  XXY=              0.0000  XXZ=              0.0000  XZZ=             -0.0000  YZZ=              0.0000
  YYZ=              0.0000  XYZ=              0.0001
 Hexadecapole moment (field-independent basis, Debye-Ang**3):
 XXXX=           -269.5165 YYYY=           -269.5347 ZZZZ=            -50.7236 XXXY=             -0.0007
 XXXZ=              0.0003 YYYX=              0.0002 YYYZ=              0.0001 ZZZX=              0.0001
 ZZZY=              0.0000 XXYY=            -89.8340 XXZZ=            -64.9714 YYZZ=            -64.9736
 XXYZ=             -0.0001 YYXZ=              0.0001 ZZXY=              0.0001
 N-N= 2.038596020114D+02 E-N=-9.464735195764D+02  KE= 2.312975038251D+02
 Calculating spin-rotation constants.
 Leave Link  601 at Fri Sep  3 09:49:59 2021, MaxMem=  1342177280 cpu:               1.8 elap:               0.9
 (Enter /usr/local/gaussian16b01/g16/l9999.exe)
 1\1\GINC-HPC_ABE03\SP\RB3LYP\6-311+G(2d,p)\C6H6\HPC\03-Sep-2021\0\\#p 
 nmr=giao rb3lyp/6-311+g(2d,p) scrf=(smd,solvent=chloroform)\\Title Car
 d Required\\0,1\C,0,-0.019907,-1.391747,0.000001\C,0,1.195369,-0.71306
 4,-0.000007\C,0,1.215257,0.678627,0.000011\C,0,0.019845,1.391748,-0.00
 0001\C,0,-1.195338,0.713116,-0.000008\C,0,-1.215227,-0.67868,0.000006\
 H,0,-0.035317,-2.475373,-0.000006\H,0,2.126045,-1.268338,-0.000009\H,0
 ,2.161402,1.207108,-0.000002\H,0,0.035397,2.475372,0.000002\H,0,-2.126
 084,1.268273,-0.00001\H,0,-2.16144,-1.20704,0.000016\\Version=ES64L-G1
 6RevB.01\State=1-A\HF=-232.3264053\RMSD=3.905e-09\Dipole=0.0000006,0.,
 -0.0000035\Quadrupole=2.22924,2.2268203,-4.4560603,-0.0000349,-0.00003
 51,-0.0000022\PG=C01 [X(C6H6)]\\@


 THESE ARE THE TIMES THAT TRY MENS SOULS.
 THE SUMMER SOLDIER AND THE SUNSHINE PATRIOT WILL IN THIS CRISIS,
 SHRINK FROM THE SERVICE OF HIS COUNTRY.  BUT HE THAT STANDS NOW,
 DESERVES THE LOVE AND THANKS OF MAN AND WOMAN.
 TYRANNY, LIKE HELL, IS NOT EASILY CONQUERED,
 YET WE HAVE THIS CONSOLATION WITH US,
 THAT THE HARDER THE CONFLICT, THE MORE GLORIOUS THE TRIUMPH.
 WHAT WE OBTAIN TOO CHEAP, WE ESTEEM TOO LIGHTLY, 
 'TIS DEARNESS ONLY THAT GIVES EVERYTHING ITS VALUE.

                                              -- TOM PAINE
 Job cpu time:       0 days  0 hours  2 minutes  6.3 seconds.
 Elapsed time:       0 days  0 hours  0 minutes 17.8 seconds.
 File lengths (MBytes):  RWF=     39 Int=      0 D2E=      0 Chk=      5 Scr=      1
 Normal termination of Gaussian 16 at Fri Sep  3 09:49:59 2021.